8
Properties=species:S:1:pos:R:3 Time=0.00 geom_id=0
C        -3.21198702      -0.12097200      -1.34939504 
H        -3.19147897       0.98785597      -1.27590096 
H        -2.29916406      -0.51237500      -0.85843003 
C        -4.47141695      -0.64173698      -0.68593198 
H        -4.51833200      -0.39320901       0.39071399 
Br        -4.59735823      -2.61233997      -0.76247698 
H        -5.39260578      -0.27747801      -1.17778695 
H        -3.17205501      -0.39257401      -2.42274404 
