15
Properties=species:S:1:pos:R:3 Time=0.00 geom_id=0
C        -1.56001723      -4.54084206       0.33483586 
C        -1.15472662      -5.30192614      -0.94484133 
O        -1.21190703      -3.16530776       0.21005765 
C        -0.84581232      -5.15522957       1.55674505 
C        -3.08250046      -4.59438992       0.52462274 
H        -0.19244631      -3.08466673       0.08542375 
H         0.25343934      -5.07162809       1.43574476 
H        -1.10638165      -6.22618961       1.69184899 
H        -1.13207626      -4.60963583       2.47924209 
H        -3.59481740      -4.13308239      -0.34448445 
H        -3.37627649      -4.03108358       1.43426251 
H        -3.44427633      -5.63752937       0.62969470 
H        -1.67129517      -4.86795044      -1.82545018 
H        -1.41460979      -6.37960005      -0.88387585 
H        -0.06150458      -5.21186495      -1.10904062 
